CRYSTAL
PRIMVEC
   2.50400000   0.00000000   0.00000000
  -1.25200000   2.16840000   0.00000000
   0.00000000   0.00000000   6.66120000
PRIMCOORD
   4 1
   5   0.00000000   0.00000000   0.00000000
   7   1.25200000   0.72280000   0.00000000
   5   0.00000000   0.00000000   3.33060000
   7  -0.00000000   1.44560000   3.33060000
