CRYSTAL
PRIMVEC
   3.16000000   0.00000000   0.00000000
  -1.58000000   2.73650000   0.00000000
   0.00000000   0.00000000  12.29400000
PRIMCOORD
   3 1
  42   0.00000000   0.00000000   0.00000000
  16   1.58000000   0.91220000   1.56700000
  16   1.58000000   0.91220000  -1.56700000
